 Gaussian 09, Revision C.01,
 Gaussian 09:  EM64L-G09RevC.01 23-Sep-2011

 --------------------------
 # mp2/6-31g** opt=z-matrix
 --------------------------

 99//99;
 --
 si
 --
 Charge =  0 Multiplicity = 1

 SCF Done:  E(RHF) =  -56.1894433301     A.U. after   10 cycles
 E2 =    -0.1872003999D+00 EUMP2 =    -0.56376643730009D+02
 SCF Done:  E(RHF) =  -56.1901889760     A.U. after    9 cycles
 E2 =    -0.1867024368D+00 EUMP2 =    -0.56376891412769D+02
 SCF Done:  E(RHF) =  -56.1901513384     A.U. after    8 cycles
 E2 =    -0.1867419741D+00 EUMP2 =    -0.56376893312523D+02
 Optimization completed on the basis of negligible forces.
    -- Stationary point found.

                         Standard orientation:
 ---------------------------------------------------------------------
 Center     Atomic      Atomic             Coordinates (Angstroms)
 Number     Number       Type             X           Y           Z
 ---------------------------------------------------------------------
      1          7           0        0.000000    0.000000    0.052013
      2          1           0        0.000000    0.983262   -0.121363
      3          1           0        0.851530   -0.491631   -0.121363
      4          1           0       -0.851530   -0.491631   -0.121363
 ---------------------------------------------------------------------

 The electronic state is 1-A1.
 Alpha  occ. eigenvalues --  -15.52221  -1.11926  -0.63578  -0.63578  -0.38870
 Alpha virt. eigenvalues --    0.22907   0.32938   0.32938   0.92177   0.92177
 Alpha virt. eigenvalues --    0.96999   1.05742   1.17624   1.17624   1.31422
 Alpha virt. eigenvalues --    1.74031   1.74031   2.34887   2.35455   2.44008

 Mulliken atomic charges:
              1
     1  N   -0.844363
     2  H    0.281454
     3  H    0.281454
     4  H    0.281454
 Sum of Mulliken atomic charges =   0.00000

 Dipole moment (field-independent basis, Debye):
    X=              0.0000    Y=              0.0000    Z=             -0.9723  Tot=              0.9723
 Quadrupole moment (field-independent basis, Debye-Ang):
   XX=             -5.5734   YY=             -5.5734   ZZ=             -9.1772
   XY=              0.0000   XZ=              0.0000   YZ=              0.0000

 Normal termination of Gaussian 09 at Thu Mar  4 15:55:06 2021.
