 Gaussian 09, Revision C.01,
 Gaussian 09:  EM64L-G09RevC.01 23-Sep-2011

 --------------------------
 # mp2/6-31g** opt=z-matrix
 --------------------------

 99//99;
 --
 si
 --
 Charge =  0 Multiplicity = 1

 SCF Done:  E(RHF) =  -56.1912057036     A.U. after   10 cycles
 E2 =    -0.1872003917D+00 EUMP2 =    -0.56378406095260D+02
 SCF Done:  E(RHF) =  -56.1917466045     A.U. after    9 cycles
 E2 =    -0.1868098508D+00 EUMP2 =    -0.56378556455248D+02
 SCF Done:  E(RHF) =  -56.1917197788     A.U. after    8 cycles
 E2 =    -0.1868375770D+00 EUMP2 =    -0.56378557355777D+02
 Optimization completed.
    -- Stationary point found.

                         Standard orientation:
 ---------------------------------------------------------------------
 Center     Atomic      Atomic             Coordinates (Angstroms)
 Number     Number       Type             X           Y           Z
 ---------------------------------------------------------------------
      1          7           0        0.000000    0.000000    0.064965
      2          1           0        0.000000    0.976791   -0.151585
      3          1           0        0.845926   -0.488395   -0.151585
      4          1           0       -0.845926   -0.488395   -0.151585
 ---------------------------------------------------------------------

 The electronic state is 1-A1.
 Alpha  occ. eigenvalues --  -15.52482  -1.12189  -0.63365  -0.63365  -0.39356
 Alpha virt. eigenvalues --    0.22804   0.32843   0.32843   0.91710   0.91710
 Alpha virt. eigenvalues --    0.96894   1.07418   1.17316   1.17316   1.31520
 Alpha virt. eigenvalues --    1.73129   1.73129   2.31355   2.35488   2.45828

 Mulliken atomic charges:
              1
     1  N   -0.834876
     2  H    0.278292
     3  H    0.278292
     4  H    0.278292
 Sum of Mulliken atomic charges =   0.00000

 Dipole moment (field-independent basis, Debye):
    X=              0.0000    Y=              0.0000    Z=             -1.1904  Tot=              1.1904
 Quadrupole moment (field-independent basis, Debye-Ang):
   XX=             -5.6501   YY=             -5.6501   ZZ=             -9.1257
   XY=              0.0000   XZ=              0.0000   YZ=              0.0000

 Normal termination of Gaussian 09 at Thu Mar  4 16:03:12 2021.
