 Gaussian 09, Revision C.01,
 Gaussian 09:  EM64L-G09RevC.01 23-Sep-2011

 --------------------------
 # mp2/6-31g** opt=z-matrix
 --------------------------

 99//99;
 --
 si
 --
 Charge =  0 Multiplicity = 1

 SCF Done:  E(RHF) =  -56.1929123447     A.U. after   10 cycles
 E2 =    -0.1872437054D+00 EUMP2 =    -0.56380156050177D+02
 SCF Done:  E(RHF) =  -56.1932431032     A.U. after    8 cycles
 E2 =    -0.1869801109D+00 EUMP2 =    -0.56380223214072D+02
 SCF Done:  E(RHF) =  -56.1932271553     A.U. after    7 cycles
 E2 =    -0.1869963535D+00 EUMP2 =    -0.56380223508795D+02
 Optimization completed on the basis of negligible forces.
    -- Stationary point found.

                         Standard orientation:
 ---------------------------------------------------------------------
 Center     Atomic      Atomic             Coordinates (Angstroms)
 Number     Number       Type             X           Y           Z
 ---------------------------------------------------------------------
      1          7           0        0.000000    0.000000    0.077876
      2          1           0        0.000000    0.968788   -0.181710
      3          1           0        0.838995   -0.484394   -0.181710
      4          1           0       -0.838995   -0.484394   -0.181710
 ---------------------------------------------------------------------

 The electronic state is 1-A1.
 Alpha  occ. eigenvalues --  -15.52788  -1.12497  -0.63099  -0.63099  -0.39938
 Alpha virt. eigenvalues --    0.22675   0.32727   0.32727   0.91172   0.91172
 Alpha virt. eigenvalues --    0.96770   1.09392   1.16960   1.16960   1.31782
 Alpha virt. eigenvalues --    1.72151   1.72151   2.27136   2.36265   2.47934

 Mulliken atomic charges:
              1
     1  N   -0.824087
     2  H    0.274696
     3  H    0.274696
     4  H    0.274696
 Sum of Mulliken atomic charges =   0.00000

 Dipole moment (field-independent basis, Debye):
    X=              0.0000    Y=              0.0000    Z=             -1.3941  Tot=              1.3941
 Quadrupole moment (field-independent basis, Debye-Ang):
   XX=             -5.7416   YY=             -5.7416   ZZ=             -9.0627
   XY=              0.0000   XZ=              0.0000   YZ=              0.0000

 Normal termination of Gaussian 09 at Thu Mar  4 15:55:17 2021.
