 Gaussian 09, Revision C.01,
 Gaussian 09:  EM64L-G09RevC.01 23-Sep-2011

 --------------------------
 # mp2/6-31g** opt=z-matrix
 --------------------------

 99//99;
 --
 si
 --
 Charge =  0 Multiplicity = 1

 SCF Done:  E(RHF) =  -56.1952302848     A.U. after   10 cycles
 E2 =    -0.1875323201D+00 EUMP2 =    -0.56382762604891D+02
 SCF Done:  E(RHF) =  -56.1951858792     A.U. after    8 cycles
 E2 =    -0.1875786816D+00 EUMP2 =    -0.56382764560859D+02
 Optimization completed.
    -- Stationary point found.

                         Standard orientation:
 ---------------------------------------------------------------------
 Center     Atomic      Atomic             Coordinates (Angstroms)
 Number     Number       Type             X           Y           Z
 ---------------------------------------------------------------------
      1          7           0        0.000000    0.000000    0.103520
      2          1           0        0.000000    0.948064   -0.241547
      3          1           0        0.821047   -0.474032   -0.241547
      4          1           0       -0.821047   -0.474032   -0.241547
 ---------------------------------------------------------------------

 The electronic state is 1-A1.
 Alpha  occ. eigenvalues --  -15.53507  -1.13226  -0.62402  -0.62402  -0.41369
 Alpha virt. eigenvalues --    0.22336   0.32434   0.32434   0.89957   0.89957
 Alpha virt. eigenvalues --    0.96456   1.13730   1.16150   1.16150   1.33452
 Alpha virt. eigenvalues --    1.70134   1.70134   2.18401   2.38449   2.52877

 Mulliken atomic charges:
              1
     1  N   -0.799809
     2  H    0.266603
     3  H    0.266603
     4  H    0.266603
 Sum of Mulliken atomic charges =   0.00000

 Dipole moment (field-independent basis, Debye):
    X=              0.0000    Y=              0.0000    Z=             -1.7555  Tot=              1.7555
 Quadrupole moment (field-independent basis, Debye-Ang):
   XX=             -5.9649   YY=             -5.9649   ZZ=             -8.9023
   XY=              0.0000   XZ=              0.0000   YZ=              0.0000

 Normal termination of Gaussian 09 at Thu Mar  4 15:55:21 2021.
