 Gaussian 09, Revision C.01,
 Gaussian 09:  EM64L-G09RevC.01 23-Sep-2011

 --------------------------
 # mp2/6-31g** opt=z-matrix
 --------------------------

 99//99;
 --
 si
 --
 Charge =  0 Multiplicity = 1

 SCF Done:  E(RHF) =  -56.1953252143     A.U. after   10 cycles
 E2 =    -0.1878391690D+00 EUMP2 =    -0.56383164383330D+02
 SCF Done:  E(RHF) =  -56.1951321749     A.U. after    8 cycles
 E2 =    -0.1880847953D+00 EUMP2 =    -0.56383216970233D+02
 Optimization completed.
    -- Stationary point found.

                         Standard orientation:
 ---------------------------------------------------------------------
 Center     Atomic      Atomic             Coordinates (Angstroms)
 Number     Number       Type             X           Y           Z
 ---------------------------------------------------------------------
      1          7           0        0.000000    0.000000    0.117241
      2          1           0        0.000000    0.934244   -0.273562
      3          1           0        0.809079   -0.467122   -0.273562
      4          1           0       -0.809079   -0.467122   -0.273562
 ---------------------------------------------------------------------

 The electronic state is 1-A1.
 Alpha  occ. eigenvalues --  -15.53944  -1.13668  -0.61927  -0.61927  -0.42271
 Alpha virt. eigenvalues --    0.22104   0.32238   0.32238   0.89270   0.89270
 Alpha virt. eigenvalues --    0.96241   1.15675   1.15675   1.15742   1.35598
 Alpha virt. eigenvalues --    1.69077   1.69077   2.13467   2.40044   2.55902

 Mulliken atomic charges:
              1
     1  N   -0.785656
     2  H    0.261885
     3  H    0.261885
     4  H    0.261885
 Sum of Mulliken atomic charges =   0.00000

 Dipole moment (field-independent basis, Debye):
    X=              0.0000    Y=              0.0000    Z=             -1.9250  Tot=              1.9250
 Quadrupole moment (field-independent basis, Debye-Ang):
   XX=             -6.1052   YY=             -6.1052   ZZ=             -8.7973
   XY=              0.0000   XZ=              0.0000   YZ=              0.0000

 Normal termination of Gaussian 09 at Thu Mar  4 16:44:57 2021.
