 Gaussian 09, Revision C.01,
 Gaussian 09:  EM64L-G09RevC.01 23-Sep-2011

 --------------------------
 # mp2/6-31g** opt=z-matrix
 --------------------------

 99//99;
 --
 si
 --
 Charge =  0 Multiplicity = 1

 SCF Done:  E(RHF) =  -56.1944689788     A.U. after   10 cycles
 E2 =    -0.1882051654D+00 EUMP2 =    -0.56382674144178D+02
 SCF Done:  E(RHF) =  -56.1941922946     A.U. after    8 cycles
 E2 =    -0.1886398101D+00 EUMP2 =    -0.56382832104639D+02
 Optimization completed.
    -- Stationary point found.

                         Standard orientation:
 ---------------------------------------------------------------------
 Center     Atomic      Atomic             Coordinates (Angstroms)
 Number     Number       Type             X           Y           Z
 ---------------------------------------------------------------------
      1          7           0        0.000000    0.000000    0.128826
      2          1           0        0.000000    0.920896   -0.300595
      3          1           0        0.797519   -0.460448   -0.300595
      4          1           0       -0.797519   -0.460448   -0.300595
 ---------------------------------------------------------------------

 The electronic state is 1-A1.
 Alpha  occ. eigenvalues --  -15.54333  -1.14073  -0.61471  -0.61471  -0.43099
 Alpha virt. eigenvalues --    0.21880   0.32050   0.32050   0.88688   0.88688
 Alpha virt. eigenvalues --    0.96029   1.15266   1.15266   1.16950   1.38468
 Alpha virt. eigenvalues --    1.68216   1.68216   2.09102   2.41687   2.58614

 Mulliken atomic charges:
              1
     1  N   -0.773090
     2  H    0.257697
     3  H    0.257697
     4  H    0.257697
 Sum of Mulliken atomic charges =   0.00000

 Dipole moment (field-independent basis, Debye):
    X=              0.0000    Y=              0.0000    Z=             -2.0559  Tot=              2.0559
 Quadrupole moment (field-independent basis, Debye-Ang):
   XX=             -6.2343   YY=             -6.2343   ZZ=             -8.6979
   XY=              0.0000   XZ=              0.0000   YZ=              0.0000

 Normal termination of Gaussian 09 at Thu Mar  4 15:55:28 2021.
