 Gaussian 09, Revision C.01,
 Gaussian 09:  EM64L-G09RevC.01 23-Sep-2011

 --------------------------
 # mp2/6-31g** opt=z-matrix
 --------------------------

 99//99;
 --
 si
 --
 Charge =  0 Multiplicity = 1

 SCF Done:  E(RHF) =  -56.1887324081     A.U. after   10 cycles
 E2 =    -0.1894072518D+00 EUMP2 =    -0.56378139659882D+02
 SCF Done:  E(RHF) =  -56.1884509052     A.U. after    9 cycles
 E2 =    -0.1903235035D+00 EUMP2 =    -0.56378774408713D+02
 SCF Done:  E(RHF) =  -56.1884498344     A.U. after    6 cycles
 E2 =    -0.1903245750D+00 EUMP2 =    -0.56378774409443D+02
 Optimization completed on the basis of negligible forces.
    -- Stationary point found.

                         Standard orientation:
 ---------------------------------------------------------------------
 Center     Atomic      Atomic             Coordinates (Angstroms)
 Number     Number       Type             X           Y           Z
 ---------------------------------------------------------------------
      1          7           0        0.000000    0.000000    0.153619
      2          1           0        0.000000    0.886918   -0.358444
      3          1           0        0.768094   -0.443459   -0.358444
      4          1           0       -0.768094   -0.443459   -0.358444
 ---------------------------------------------------------------------

 The electronic state is 1-A1.
 Alpha  occ. eigenvalues --  -15.55218  -1.15037  -0.60317  -0.60317  -0.45062
 Alpha virt. eigenvalues --    0.21308   0.31573   0.31573   0.87512   0.87512
 Alpha virt. eigenvalues --    0.95467   1.14382   1.14382   1.17727   1.48024
 Alpha virt. eigenvalues --    1.66498   1.66498   1.98924   2.46332   2.55838

 Mulliken atomic charges:
              1
     1  N   -0.743720
     2  H    0.247907
     3  H    0.247907
     4  H    0.247907
 Sum of Mulliken atomic charges =   0.00000

 Dipole moment (field-independent basis, Debye):
    X=              0.0000    Y=              0.0000    Z=             -2.3008  Tot=              2.3008
 Quadrupole moment (field-independent basis, Debye-Ang):
   XX=             -6.5414   YY=             -6.5414   ZZ=             -8.4524
   XY=              0.0000   XZ=              0.0000   YZ=              0.0000

 Normal termination of Gaussian 09 at Thu Mar  4 15:55:34 2021.
