 Gaussian 09, Revision C.01,
 Gaussian 09:  EM64L-G09RevC.01 23-Sep-2011

 --------------------------
 # mp2/6-31g** opt=z-matrix
 --------------------------

 99//99;
 --
 si
 --
 Charge =  0 Multiplicity = 1

 SCF Done:  E(RHF) =  -56.1762702447     A.U. after   10 cycles
 E2 =    -0.1913193118D+00 EUMP2 =    -0.56367589556437D+02
 SCF Done:  E(RHF) =  -56.1763172430     A.U. after    9 cycles
 E2 =    -0.1928390653D+00 EUMP2 =    -0.56369156308314D+02
 SCF Done:  E(RHF) =  -56.1762801836     A.U. after    7 cycles
 E2 =    -0.1928769710D+00 EUMP2 =    -0.56369157154583D+02
 Optimization completed.
    -- Stationary point found.

                         Standard orientation:
 ---------------------------------------------------------------------
 Center     Atomic      Atomic             Coordinates (Angstroms)
 Number     Number       Type             X           Y           Z
 ---------------------------------------------------------------------
      1          7           0        0.000000    0.000000    0.177874
      2          1           0        0.000000    0.846770   -0.415040
      3          1           0        0.733324   -0.423385   -0.415040
      4          1           0       -0.733324   -0.423385   -0.415040
 ---------------------------------------------------------------------

 The electronic state is 1-A1.
 Alpha  occ. eigenvalues --  -15.56169  -1.16084  -0.58923  -0.58923  -0.47200
 Alpha virt. eigenvalues --    0.20613   0.30971   0.30971   0.86576   0.86576
 Alpha virt. eigenvalues --    0.94771   1.13500   1.13500   1.16616   1.59573
 Alpha virt. eigenvalues --    1.65024   1.65024   1.88299   2.48087   2.48087

 Mulliken atomic charges:
              1
     1  N   -0.709920
     2  H    0.236640
     3  H    0.236640
     4  H    0.236640
 Sum of Mulliken atomic charges =   0.00000

 Dipole moment (field-independent basis, Debye):
    X=              0.0000    Y=              0.0000    Z=             -2.4958  Tot=              2.4958
 Quadrupole moment (field-independent basis, Debye-Ang):
   XX=             -6.8791   YY=             -6.8791   ZZ=             -8.1727
   XY=              0.0000   XZ=              0.0000   YZ=              0.0000

 Normal termination of Gaussian 09 at Thu Mar  4 15:55:39 2021.
