 Gaussian 09, Revision C.01,
 Gaussian 09:  EM64L-G09RevC.01 23-Sep-2011

 --------------------------
 # mp2/6-31g** opt=z-matrix
 --------------------------

 99//99;
 --
 si
 --
 Charge =  0 Multiplicity = 1

 SCF Done:  E(RHF) =  -56.1554629073     A.U. after   10 cycles
 E2 =    -0.1941593916D+00 EUMP2 =    -0.56349622298922D+02
 SCF Done:  E(RHF) =  -56.1563594749     A.U. after    9 cycles
 E2 =    -0.1964641934D+00 EUMP2 =    -0.56352823668361D+02
 SCF Done:  E(RHF) =  -56.1562434232     A.U. after    7 cycles
 E2 =    -0.1965874917D+00 EUMP2 =    -0.56352830914881D+02
 Optimization completed.
    -- Stationary point found.

                         Standard orientation:
 ---------------------------------------------------------------------
 Center     Atomic      Atomic             Coordinates (Angstroms)
 Number     Number       Type             X           Y           Z
 ---------------------------------------------------------------------
      1          7           0        0.000000    0.000000    0.201588
      2          1           0        0.000000    0.800810   -0.470372
      3          1           0        0.693522   -0.400405   -0.470372
      4          1           0       -0.693522   -0.400405   -0.470372
 ---------------------------------------------------------------------

 The electronic state is 1-A1.
 Alpha  occ. eigenvalues --  -15.57185  -1.17210  -0.57295  -0.57295  -0.49479
 Alpha virt. eigenvalues --    0.19798   0.30229   0.30229   0.85994   0.85994
 Alpha virt. eigenvalues --    0.93978   1.12624   1.12624   1.14391   1.60961
 Alpha virt. eigenvalues --    1.63906   1.63906   1.86000   2.40908   2.40908

 Mulliken atomic charges:
              1
     1  N   -0.669821
     2  H    0.223274
     3  H    0.223274
     4  H    0.223274
 Sum of Mulliken atomic charges =   0.00000

 Dipole moment (field-independent basis, Debye):
    X=              0.0000    Y=              0.0000    Z=             -2.6449  Tot=              2.6449
 Quadrupole moment (field-independent basis, Debye-Ang):
   XX=             -7.2401   YY=             -7.2401   ZZ=             -7.8639
   XY=              0.0000   XZ=              0.0000   YZ=              0.0000

 Normal termination of Gaussian 09 at Thu Mar  4 15:55:43 2021.
