 Gaussian 09, Revision C.01,
 Gaussian 09:  EM64L-G09RevC.01 23-Sep-2011

 --------------------------
 # mp2/6-31g** opt=z-matrix
 --------------------------

 99//99;
 --
 si
 --
 Charge =  0 Multiplicity = 1

 SCF Done:  E(RHF) =  -56.1246187040     A.U. after   10 cycles
 E2 =    -0.1980517924D+00 EUMP2 =    -0.56322670496452D+02
 SCF Done:  E(RHF) =  -56.1272809057     A.U. after    9 cycles
 E2 =    -0.2014691068D+00 EUMP2 =    -0.56328750012492D+02
 SCF Done:  E(RHF) =  -56.1270036515     A.U. after    8 cycles
 E2 =    -0.2017826721D+00 EUMP2 =    -0.56328786323604D+02
 SCF Done:  E(RHF) =  -56.1270049525     A.U. after    6 cycles
 E2 =    -0.2017813716D+00 EUMP2 =    -0.56328786324141D+02
 Optimization completed on the basis of negligible forces.
    -- Stationary point found.

                         Standard orientation:
 ---------------------------------------------------------------------
 Center     Atomic      Atomic             Coordinates (Angstroms)
 Number     Number       Type             X           Y           Z
 ---------------------------------------------------------------------
      1          7           0        0.000000    0.000000    0.224986
      2          1           0        0.000000    0.749952   -0.524966
      3          1           0        0.649478   -0.374976   -0.524966
      4          1           0       -0.649478   -0.374976   -0.524966
 ---------------------------------------------------------------------

 The electronic state is 1-A1.
 Alpha  occ. eigenvalues --  -15.58291  -1.18366  -0.55425  -0.55425  -0.51899
 Alpha virt. eigenvalues --    0.18845   0.29311   0.29311   0.85877   0.85877
 Alpha virt. eigenvalues --    0.93205   1.11295   1.11695   1.11695   1.45082
 Alpha virt. eigenvalues --    1.63501   1.63501   1.96226   2.34271   2.34271

 Mulliken atomic charges:
              1
     1  N   -0.624023
     2  H    0.208008
     3  H    0.208008
     4  H    0.208008
 Sum of Mulliken atomic charges =   0.00000

 Dipole moment (field-independent basis, Debye):
    X=              0.0000    Y=              0.0000    Z=             -2.7512  Tot=              2.7512
 Quadrupole moment (field-independent basis, Debye-Ang):
   XX=             -7.6179   YY=             -7.6179   ZZ=             -7.5299
   XY=              0.0000   XZ=              0.0000   YZ=              0.0000

 Normal termination of Gaussian 09 at Thu Mar  4 15:55:48 2021.
