 Gaussian 09, Revision C.01,
 Gaussian 09:  EM64L-G09RevC.01 23-Sep-2011

 --------------------------
 # mp2/6-31g** opt=z-matrix
 --------------------------

 99//99;
 --
 si
 --
 Charge =  0 Multiplicity = 1

 SCF Done:  E(RHF) =  -56.0814104073     A.U. after   10 cycles
 E2 =    -0.2027162967D+00 EUMP2 =    -0.56284126703973D+02
 SCF Done:  E(RHF) =  -56.0876943538     A.U. after    9 cycles
 E2 =    -0.2078199229D+00 EUMP2 =    -0.56295514276763D+02
 SCF Done:  E(RHF) =  -56.0870830700     A.U. after    8 cycles
 E2 =    -0.2085918635D+00 EUMP2 =    -0.56295674933534D+02
 SCF Done:  E(RHF) =  -56.0870903527     A.U. after    7 cycles
 E2 =    -0.2085845945D+00 EUMP2 =    -0.56295674947154D+02
 Optimization completed on the basis of negligible forces.
    -- Stationary point found.

                         Standard orientation:
 ---------------------------------------------------------------------
 Center     Atomic      Atomic             Coordinates (Angstroms)
 Number     Number       Type             X           Y           Z
 ---------------------------------------------------------------------
      1          7           0        0.000000    0.000000    0.248692
      2          1           0        0.000000    0.695591   -0.580281
      3          1           0        0.602400   -0.347796   -0.580281
      4          1           0       -0.602400   -0.347796   -0.580281
 ---------------------------------------------------------------------

 The electronic state is 1-A1.
 Alpha  occ. eigenvalues --  -15.59531  -1.19421  -0.54504  -0.53297  -0.53297
 Alpha virt. eigenvalues --    0.17703   0.28149   0.28149   0.86339   0.86339
 Alpha virt. eigenvalues --    0.92654   1.06474   1.10573   1.10573   1.25780
 Alpha virt. eigenvalues --    1.64496   1.64496   2.06571   2.27923   2.27923

 Mulliken atomic charges:
              1
     1  N   -0.576548
     2  H    0.192183
     3  H    0.192183
     4  H    0.192183
 Sum of Mulliken atomic charges =   0.00000

 Dipole moment (field-independent basis, Debye):
    X=              0.0000    Y=              0.0000    Z=             -2.8203  Tot=              2.8203
 Quadrupole moment (field-independent basis, Debye-Ang):
   XX=             -8.0094   YY=             -8.0094   ZZ=             -7.1702
   XY=              0.0000   XZ=              0.0000   YZ=              0.0000

 Normal termination of Gaussian 09 at Thu Mar  4 15:55:52 2021.
