 Gaussian 09, Revision C.01,
 Gaussian 09:  EM64L-G09RevC.01 23-Sep-2011

 --------------------------
 # mp2/6-31g** opt=z-matrix
 --------------------------

 99//99;
 --
 si
 --
 Charge =  0 Multiplicity = 1

 SCF Done:  E(RHF) =  -56.1854354665     A.U. after    9 cycles
 E2 =    -0.1872940394D+00 EUMP2 =    -0.56372729505830D+02
 SCF Done:  E(RHF) =  -56.1866323851     A.U. after    7 cycles
 E2 =    -0.1865936777D+00 EUMP2 =    -0.56373226062781D+02
 SCF Done:  E(RHF) =  -56.1865708531     A.U. after    7 cycles
 E2 =    -0.1866610635D+00 EUMP2 =    -0.56373231916591D+02
 Optimization completed.
    -- Stationary point found.

                         Standard orientation:
 ---------------------------------------------------------------------
 Center     Atomic      Atomic             Coordinates (Angstroms)
 Number     Number       Type             X           Y           Z
 ---------------------------------------------------------------------
      1          7           0        0.000000    0.000000    0.000000
      2          1           0        0.000000    0.994581    0.000000
      3          1           0        0.861332   -0.497291    0.000000
      4          1           0       -0.861332   -0.497291    0.000000
 ---------------------------------------------------------------------

 The electronic state is 1-A1'.
 Alpha  occ. eigenvalues --  -15.51729  -1.11429  -0.63946  -0.63946  -0.37990
 Alpha virt. eigenvalues --    0.23089   0.33109   0.33109   0.93071   0.93071
 Alpha virt. eigenvalues --    0.97224   1.02669   1.18217   1.18217   1.31446
 Alpha virt. eigenvalues --    1.75925   1.75925   2.33896   2.40485   2.40485

 Mulliken atomic charges:
              1
     1  N   -0.862957
     2  H    0.287652
     3  H    0.287652
     4  H    0.287652
 Sum of Mulliken atomic charges =   0.00000

 Dipole moment (field-independent basis, Debye):
    X=              0.0000    Y=              0.0000    Z=              0.0000  Tot=              0.0000
 Quadrupole moment (field-independent basis, Debye-Ang):
   XX=             -5.4328   YY=             -5.4328   ZZ=             -9.2681
   XY=              0.0000   XZ=              0.0000   YZ=              0.0000

 Normal termination of Gaussian 09 at Thu Mar  4 15:43:41 2021.
