 Gaussian 09, Revision C.01,
 Gaussian 09:  EM64L-G09RevC.01 23-Sep-2011

 --------------------------
 # mp2/6-31g** opt=z-matrix
 --------------------------

 99//99;
 --
 si
 --
 Charge =  0 Multiplicity = 1

 SCF Done:  E(RHF) =  -56.1865469971     A.U. after   10 cycles
 E2 =    -0.1872581282D+00 EUMP2 =    -0.56373805125343D+02
 SCF Done:  E(RHF) =  -56.1876194753     A.U. after    9 cycles
 E2 =    -0.1866100480D+00 EUMP2 =    -0.56374229523291D+02
 SCF Done:  E(RHF) =  -56.1875644991     A.U. after    8 cycles
 E2 =    -0.1866695221D+00 EUMP2 =    -0.56374234021168D+02
 Optimization completed.
    -- Stationary point found.

                         Standard orientation:
 ---------------------------------------------------------------------
 Center     Atomic      Atomic             Coordinates (Angstroms)
 Number     Number       Type             X           Y           Z
 ---------------------------------------------------------------------
      1          7           0        0.000000    0.000000    0.026031
      2          1           0        0.000000    0.991775   -0.060738
      3          1           0        0.858902   -0.495887   -0.060738
      4          1           0       -0.858902   -0.495887   -0.060738
 ---------------------------------------------------------------------

 The electronic state is 1-A1.
 Alpha  occ. eigenvalues --  -15.51855  -1.11557  -0.63855  -0.63855  -0.38212
 Alpha virt. eigenvalues --    0.23044   0.33066   0.33066   0.92839   0.92839
 Alpha virt. eigenvalues --    0.97159   1.03448   1.18063   1.18063   1.31420
 Alpha virt. eigenvalues --    1.75411   1.75411   2.34134   2.41407   2.41407

 Mulliken atomic charges:
              1
     1  N   -0.858081
     2  H    0.286027
     3  H    0.286027
     4  H    0.286027
 Sum of Mulliken atomic charges =   0.00000

 Dipole moment (field-independent basis, Debye):
    X=              0.0000    Y=              0.0000    Z=             -0.5005  Tot=              0.5005
 Quadrupole moment (field-independent basis, Debye-Ang):
   XX=             -5.4685   YY=             -5.4685   ZZ=             -9.2454
   XY=              0.0000   XZ=              0.0000   YZ=              0.0000

 Normal termination of Gaussian 09 at Thu Mar  4 15:47:26 2021.
