 Gaussian 09, Revision C.01,
 Gaussian 09:  EM64L-G09RevC.01 23-Sep-2011

 --------------------------
 # mp2/6-31g** opt=z-matrix
 --------------------------

 99//99;
 --
 si
 --
 Charge =  0 Multiplicity = 1

 SCF Done:  E(RHF) =  -56.1878322100     A.U. after   10 cycles
 E2 =    -0.1872253956D+00 EUMP2 =    -0.56375057605639D+02
 SCF Done:  E(RHF) =  -56.1887604157     A.U. after    9 cycles
 E2 =    -0.1866409813D+00 EUMP2 =    -0.56375401396997D+02
 SCF Done:  E(RHF) =  -56.1887130837     A.U. after    8 cycles
 E2 =    -0.1866915001D+00 EUMP2 =    -0.56375404583742D+02
 Optimization completed.
    -- Stationary point found.

                         Standard orientation:
 ---------------------------------------------------------------------
 Center     Atomic      Atomic             Coordinates (Angstroms)
 Number     Number       Type             X           Y           Z
 ---------------------------------------------------------------------
      1          7           0        0.000000    0.000000    0.039031
      2          1           0        0.000000    0.988245   -0.091073
      3          1           0        0.855845   -0.494122   -0.091073
      4          1           0       -0.855845   -0.494122   -0.091073
 ---------------------------------------------------------------------

 The electronic state is 1-A1.
 Alpha  occ. eigenvalues --  -15.52010  -1.11713  -0.63740  -0.63740  -0.38488
 Alpha virt. eigenvalues --    0.22987   0.33012   0.33012   0.92558   0.92558
 Alpha virt. eigenvalues --    0.97088   1.04411   1.17876   1.17876   1.31405
 Alpha virt. eigenvalues --    1.74809   1.74809   2.34441   2.39355   2.42518

 Mulliken atomic charges:
              1
     1  N   -0.852206
     2  H    0.284069
     3  H    0.284069
     4  H    0.284069
 Sum of Mulliken atomic charges =   0.00000

 Dipole moment (field-independent basis, Debye):
    X=              0.0000    Y=              0.0000    Z=             -0.7415  Tot=              0.7415
 Quadrupole moment (field-independent basis, Debye-Ang):
   XX=             -5.5126   YY=             -5.5126   ZZ=             -9.2170
   XY=              0.0000   XZ=              0.0000   YZ=              0.0000

 Normal termination of Gaussian 09 at Thu Mar  4 16:02:52 2021.
